% Model:              20150819_beam.mph
% Version:            COMSOL 5.0.0.243
% Date:               Aug 26 2015, 11:26
% Dimension:          1
% Nodes:              1001
% Expressions:        1
% Description:        Point graph
% x                       Height
1591500                   359.56739324953963
1591500.2                 359.5668453715956
1591500.4                 359.56629610408135
1591500.6                 359.56574544170326
1591500.8                 359.5651933791425
1591501                   359.56463991105136
1591501.2                 359.56408503205546
1591501.4                 359.5635287367529
1591501.6                 359.5629710197138
1591501.8                 359.56241187548204
1591502                   359.5618512985719
1591502.2                 359.5612892834701
1591502.4                 359.56072582463497
1591502.6                 359.5601609164956
1591502.8                 359.5595945534546
1591503                   359.55902672988356
1591503.2                 359.55845744012555
1591503.4                 359.5578866784948
1591503.6                 359.557314439275
1591503.8                 359.55674071672246
1591504                   359.55616550506153
1591504.2                 359.55558879848735
1591504.4                 359.55501059116483
1591504.6                 359.5544308772275
1591504.8                 359.5538496507809
1591505                   359.55326690589715
1591505.2                 359.5526826366183
1591505.4                 359.5520968369552
1591505.6                 359.5515095008866
1591505.8                 359.5509206223616
1591506                   359.55033019529554
1591506.2                 359.54973821357237
1591506.4                 359.5491446710435
1591506.6                 359.54854956152775
1591506.8                 359.5479528788129
1591507                   359.54735461665183
1591507.2                 359.5467547687652
1591507.4                 359.54615332884015
1591507.6                 359.54555029052943
1591507.8                 359.5449456474546
1591508                   359.5443393932007
1591508.2                 359.54373152131933
1591508.4                 359.54312202532765
1591508.6                 359.5425108987075
1591508.8                 359.54189813490785
1591509                   359.5412837273405
1591509.2                 359.5406676693823
1591509.4                 359.5400499543748
1591509.6                 359.5394305756228
1591509.8                 359.53880952639713
1591510                   359.5381867999302
1591510.2                 359.5375623894184
1591510.4                 359.5369362880214
1591510.6                 359.536308488861
1591510.8                 359.53567898502394
1591511                   359.53504776955697
1591511.2                 359.53441483546993
1591511.4                 359.5337801757342
1591511.6                 359.5331437832826
1591511.8                 359.53250565101104
1591512                   359.5318657717744
1591512.2                 359.5312241383894
1591512.4                 359.53058074363304
1591512.6                 359.5299355802419
1591512.8                 359.529288640915
1591513                   359.5286399183087
1591513.2                 359.52798940503965
1591513.4                 359.52733709368357
1591513.6                 359.52668297677434
1591513.8                 359.526027046807
1591514                   359.52536929623227
1591514.2                 359.52470971745987
1591514.4                 359.5240483028573
1591514.6                 359.5233850447487
1591514.8                 359.5227199354175
1591515                   359.522052967102
1591515.2                 359.52138413199765
1591515.4                 359.5207134222561
1591515.6                 359.5200408299843
1591515.8                 359.51936634724706
1591516                   359.51868996606225
1591516.2                 359.51801167840347
1591516.4                 359.5173314761991
1591516.6                 359.516649351331
1591516.8                 359.51596529563756
1591517                   359.5152793009083
1591517.2                 359.5145913588873
1591517.4                 359.51390146127136
1591517.6                 359.5132095997093
1591517.8                 359.51251576580484
1591518                   359.5118199511112
1591518.2                 359.5111221471343
1591518.4                 359.5104223453312
1591518.6                 359.5097205371094
1591518.8                 359.5090167138293
1591519                   359.5083108667992
1591519.2                 359.5076029872783
1591519.4                 359.50689306647524
1591519.6                 359.5061810955472
1591519.8                 359.5054670656026
1591520                   359.5047509676959
1591520.2                 359.5040327928304
1591520.4                 359.50331253195736
1591520.6                 359.5025901759744
1591520.8                 359.5018657157286
1591521                   359.50113914201137
1591521.2                 359.50041044556076
1591521.4                 359.49967961706096
1591521.6                 359.4989466471406
1591521.8                 359.4982115263758
1591522                   359.4974742452848
1591522.2                 359.4967347943311
1591522.4                 359.49599316392147
1591522.6                 359.4952493444055
1591522.8                 359.49450332607864
1591523                   359.49375509917576
1591523.2                 359.4930046538748
1591523.4                 359.4922519802956
1591523.6                 359.4914970684981
1591523.8                 359.490739908486
1591524                   359.48998049020037
1591524.2                 359.4892188035233
1591524.4                 359.4884548382763
1591524.6                 359.487688584219
1591524.8                 359.48692003105225
1591525                   359.4861491684123
1591525.2                 359.485375985874
1591525.4                 359.4846004729492
1591525.6                 359.48382261908574
1591525.8                 359.48304241367026
1591526                   359.48225984602243
1591526.2                 359.48147490539804
1591526.4                 359.48068758098765
1591526.6                 359.4798978619152
1591526.8                 359.479105737241
1591527                   359.478311195956
1591527.2                 359.4775142269846
1591527.4                 359.4767148191837
1591527.6                 359.4759129613408
1591527.8                 359.47510864217736
1591528                   359.4743018503427
1591528.2                 359.4734925744172
1591528.4                 359.47268080291093
1591528.6                 359.47186652426177
1591528.8                 359.47104972683917
1591529                   359.4702303989376
1591529.2                 359.4694085287798
1591529.4                 359.4685841045153
1591529.6                 359.467757114219
1591529.8                 359.4669275458943
1591530                   359.46609538746685
1591530.2                 359.46526062678754
1591530.4                 359.4644232516314
1591530.6                 359.4635832496957
1591530.8                 359.4627406086034
1591531                   359.4618953158964
1591531.2                 359.46104735903947
1591531.4                 359.4601967254178
1591531.6                 359.4593434023362
1591531.8                 359.45848737702175
1591532                   359.4576286366178
1591532.2                 359.45676716818684
1591532.4                 359.455902958709
1591532.6                 359.45503599508055
1591532.8                 359.45416626411713
1591533                   359.453293752547
1591533.2                 359.45241844701434
1591533.4                 359.45154033407795
1591533.6                 359.45065940020896
1591533.8                 359.4497756317947
1591534                   359.44888901513144
1591534.2                 359.44799953642837
1591534.4                 359.4471071818052
1591534.6                 359.4462119372909
1591534.8                 359.4453137888269
1591535                   359.44441272226004
1591535.2                 359.44350872334616
1591535.4                 359.4426017777483
1591535.6                 359.44169187103455
1591535.8                 359.4407789886824
1591536                   359.43986311607034
1591536.2                 359.4389442384824
1591536.4                 359.43802234110586
1591536.6                 359.43709740902915
1591536.8                 359.4361694272459
1591537                   359.4352383806472
1591537.2                 359.4343042540254
1591537.4                 359.43336703207194
1591537.6                 359.4324266993756
1591537.8                 359.4314832404261
1591538                   359.4305366396063
1591538.2                 359.42958688119637
1591538.4                 359.428633949371
1591538.6                 359.42767782819806
1591538.8                 359.4267185016421
1591539                   359.42575595355635
1591539.2                 359.42479016768675
1591539.4                 359.4238211276695
1591539.6                 359.4228488170294
1591539.8                 359.4218732191832
1591540                   359.42089431743193
1591540.2                 359.4199120949645
1591540.4                 359.4189265348555
1591540.6                 359.4179376200631
1591540.8                 359.41694533343303
1591541                   359.41594965769
1591541.2                 359.41495057544205
1591541.4                 359.4139480691777
1591541.6                 359.4129421212641
1591541.8                 359.41193271395093
1591542                   359.4109198293618
1591542.2                 359.4099034494981
1591542.4                 359.408883556237
1591542.6                 359.40786013132896
1591542.8                 359.40683315640115
1591543                   359.40580261294986
1591543.2                 359.40476848234346
1591543.4                 359.4037307458205
1591543.6                 359.40268938448736
1591543.8                 359.4016443793216
1591544                   359.4005957111642
1591544.2                 359.39954336072236
1591544.4                 359.3984873085679
1591544.6                 359.3974275351342
1591544.8                 359.39636402072057
1591545                   359.395296745483
1591545.2                 359.39422568943826
1591545.4                 359.39315083246123
1591545.6                 359.39207215428246
1591545.8                 359.3909896344921
1591546                   359.38990325253064
1591546.2                 359.388812987693
1591546.4                 359.3877188191258
1591546.6                 359.3866207258247
1591546.8                 359.3855186866386
1591547                   359.38441268025986
1591547.2                 359.3833026852287
1591547.4                 359.3821886799304
1591547.6                 359.38107064259214
1591547.8                 359.3799485512872
1591548                   359.37882238392604
1591548.2                 359.3776921182591
1591548.4                 359.3765577318751
1591548.6                 359.37541920219746
1591548.8                 359.3742765064884
1591549                   359.37312962183955
1591549.2                 359.37197852517545
1591549.4                 359.37082319325106
1591549.6                 359.36966360264853
1591549.8                 359.3684997297811
1591550                   359.3673315508835
1591550.2                 359.36615904201545
1591550.4                 359.3649821790593
1591550.6                 359.3638009377162
1591550.8                 359.3626152935104
1591551                   359.3614252217793
1591551.2                 359.36023069767714
1591551.4                 359.35903169617194
1591551.6                 359.3578281920421
1591551.8                 359.35662015988095
1591552                   359.3554075740856
1591552.2                 359.35419040886137
1591552.4                 359.35296863821833
1591552.6                 359.35174223596846
1591552.8                 359.35051117572857
1591553                   359.3492754309107
1591553.2                 359.34803497472564
1591553.4                 359.34678978017934
1591553.6                 359.3455398200699
1591553.8                 359.344285066991
1591554                   359.3430254933216
1591554.2                 359.3417610712293
1591554.4                 359.3404917726672
1591554.6                 359.3392175693699
1591554.8                 359.3379384328581
1591555                   359.33665433442656
1591555.2                 359.33536524514886
1591555.4                 359.334071135873
1591555.6                 359.33277197721816
1591555.8                 359.3314677395783
1591556                   359.3301583931109
1591556.2                 359.32884390774086
1591556.4                 359.32752425315635
1591556.6                 359.3261993988054
1591556.8                 359.3248693138991
1591557                   359.3235339674007
1591557.2                 359.32219332802873
1591557.4                 359.32084736425355
1591557.6                 359.3194960442925
1591557.8                 359.318139336115
1591558                   359.316777207429
1591558.2                 359.315409625686
1591558.4                 359.3140365580764
1591558.6                 359.31265797152497
1591558.8                 359.3112738326951
1591559                   359.3098841079764
1591559.2                 359.30848876348807
1591559.4                 359.30708776507487
1591559.6                 359.30568107830265
1591559.8                 359.304268668462
1591560                   359.30285050055545
1591560.2                 359.3014265393014
1591560.4                 359.29999674912955
1591560.6                 359.29856109417585
1591560.8                 359.2971195382868
1591561                   359.2956720450058
1591561.2                 359.2942185775773
1591561.4                 359.2927590989415
1591561.6                 359.29129357172997
1591561.8                 359.2898219582689
1591562                   359.2883442205658
1591562.2                 359.2868603203132
1591562.4                 359.2853702188835
1591562.6                 359.2838738773237
1591562.8                 359.28237125635906
1591563                   359.2808623163797
1591563.2                 359.27934701744334
1591563.4                 359.27782531927045
1591563.6                 359.2762971812389
1591563.8                 359.2747625623873
1591564                   359.2732214214008
1591564.2                 359.27167371661443
1591564.4                 359.2701194060078
1591564.6                 359.2685584471989
1591564.8                 359.2669907974482
1591565                   359.26541641364344
1591565.2                 359.263835252303
1591565.4                 359.2622472695702
1591565.6                 359.2606524212072
1591565.8                 359.25905066259855
1591566                   359.2574419487359
1591566.2                 359.25582623422076
1591566.4                 359.254203473259
1591566.6                 359.25257361965413
1591566.8                 359.2509366268108
1591567                   359.24929244771886
1591567.2                 359.24764103495653
1591567.4                 359.2459823406838
1591567.6                 359.24431631663595
1591567.8                 359.24264291412686
1591568                   359.240962084032
1591568.2                 359.2392737767923
1591568.4                 359.23757794240623
1591568.6                 359.2358745304241
1591568.8                 359.23416348994994
1591569                   359.2324447696251
1591569.2                 359.230718317631
1591569.4                 359.2289840816817
1591569.6                 359.2272420090168
1591569.8                 359.2254920464042
1591570                   359.2237341401225
1591570.2                 359.2219682359635
1591570.4                 359.22019427922464
1591570.6                 359.21841221470135
1591570.8                 359.2166219866896
1591571                   359.2148235389677
1591571.2                 359.21301681479855
1591571.4                 359.21120175692187
1591571.6                 359.2093783075455
1591571.8                 359.2075464083486
1591572                   359.20570600046193
1591572.2                 359.2038570244702
1591572.4                 359.2019994204042
1591572.6                 359.200133127731
1591572.8                 359.19825808535717
1591573                   359.19637423160833
1591573.2                 359.1944815042314
1591573.4                 359.1925798403857
1591573.6                 359.1906691766334
1591573.8                 359.1887494489415
1591574                   359.1868205926617
1591574.2                 359.1848825425314
1591574.4                 359.1829352326648
1591574.6                 359.1809785965425
1591574.8                 359.1790125670134
1591575                   359.1770370762735
1591575.2                 359.17505205586684
1591575.4                 359.1730574366756
1591575.6                 359.1710531489096
1591575.8                 359.1690391221075
1591576                   359.1670152851147
1591576.2                 359.164981566084
1591576.4                 359.1629378924652
1591576.6                 359.16088419099356
1591576.8                 359.1588203876911
1591577                   359.15674640784306
1591577.2                 359.1546621759986
1591577.4                 359.15256761595924
1591577.6                 359.1504626507668
1591577.8                 359.1483472027045
1591578                   359.146221193272
1591578.2                 359.1440845431859
1591578.4                 359.14193717236725
1591578.6                 359.13977899992904
1591578.8                 359.1376099441761
1591579                   359.1354299225801
1591579.2                 359.13323885177834
1591579.4                 359.13103664756136
1591579.6                 359.12882322485916
1591579.8                 359.1265984977409
1591580                   359.1243623793878
1591580.2                 359.12211478209264
1591580.4                 359.11985561724566
1591580.6                 359.11758479531994
1591580.8                 359.11530222587044
1591581                   359.1130078175062
1591581.2                 359.1107014778884
1591581.4                 359.1083831137158
1591581.6                 359.10605263070863
1591581.8                 359.1037099336079
1591582                   359.10135492614484
1591582.2                 359.09898751103975
1591582.4                 359.0966075899848
1591582.6                 359.09421506362855
1591582.8                 359.09180983157256
1591583                   359.0893917923413
1591583.2                 359.08696084337856
1591583.4                 359.08451688103025
1591583.6                 359.08205980052696
1591583.8                 359.07958949598026
1591584                   359.07710586035034
1591584.2                 359.07460878544236
1591584.4                 359.0720981618873
1591584.6                 359.0695738791234
1591584.8                 359.06703582539194
1591585                   359.0644838877023
1591585.2                 359.06191795182804
1591585.4                 359.0593379022858
1591585.6                 359.05674362231593
1591585.8                 359.0541349938764
1591586                   359.051511897607
1591586.2                 359.048874212823
1591586.4                 359.0462218174941
1591586.6                 359.0435545882218
1591586.8                 359.0408724002334
1591587                   359.0381751273434
1591587.2                 359.03546264194637
1591587.4                 359.03273481499394
1591587.6                 359.0299915159706
1591587.8                 359.02723261288617
1591588                   359.0244579722352
1591588.2                 359.0216674589884
1591588.4                 359.01886093656736
1591588.6                 359.016038266819
1591588.8                 359.01319931000637
1591589                   359.0103439247655
1591589.2                 359.00747196809533
1591589.4                 359.00458329533024
1591589.6                 359.001677760113
1591589.8                 358.99875521438275
1591590                   358.99581550833034
1591590.2                 358.99285849038597
1591590.4                 358.98988400718946
1591590.6                 358.98689190356083
1591590.8                 358.9838820224869
1591591                   358.98085420507306
1591591.2                 358.9778082905292
1591591.4                 358.9747441161376
1591591.6                 358.9716615172207
1591591.8                 358.9685603271259
1591592                   358.96544037717393
1591592.2                 358.9623014966426
1591592.4                 358.95914351273206
1591592.6                 358.95596625052957
1591592.8                 358.95276953299174
1591593                   358.94955318088995
1591593.2                 358.9463170127911
1591593.4                 358.94306084502006
1591593.6                 358.9397844916213
1591593.8                 358.93648776433844
1591594                   358.9331704725556
1591594.2                 358.9298324232757
1591594.4                 358.9264734210793
1591594.6                 358.92309326808265
1591594.8                 358.91969176391456
1591595                   358.9162687056532
1591595.2                 358.91282388780127
1591595.4                 358.9093571022414
1591595.6                 358.90586813819004
1591595.8                 358.90235678217056
1591596                   358.898822817946
1591596.2                 358.89526602649073
1591596.4                 358.891686185941
1591596.6                 358.8880830715447
1591596.8                 358.88445645563155
1591597                   358.8808061075389
1591597.2                 358.877131793581
1591597.4                 358.87343327699415
1591597.6                 358.86971031788147
1591597.8                 358.86596267317896
1591598                   358.862190096576
1591598.2                 358.85839233847935
1591598.4                 358.85456914595306
1591598.6                 358.8507202626586
1591598.8                 358.8468454288153
1591599                   358.84294438111453
1591599.2                 358.839016852679
1591599.4                 358.8350625729964
1591599.6                 358.8310812678533
1591599.8                 358.82707265929037
1591600                   358.82303646550974
1591600.2                 358.81897240082736
1591600.4                 358.81488017560144
1591600.6                 358.81075949615854
1591600.8                 358.8066100647426
1591601                   358.8024315794144
1591601.2                 358.79822373399816
1591601.4                 358.79398621800095
1591601.6                 358.78971871653215
1591601.8                 358.7854209102453
1591602                   358.78109247522843
1591602.2                 358.7767330829427
1591602.4                 358.7723424001345
1591602.6                 358.76792008874503
1591602.8                 358.76346580584476
1591603                   358.7589792035135
1591603.2                 358.7544599287706
1591603.4                 358.7499076234772
1591603.6                 358.7453219242367
1591603.8                 358.74070246231895
1591604                   358.73604886352973
1591604.2                 358.73136074813124
1591604.4                 358.72663773073316
1591604.6                 358.721879420182
1591604.8                 358.7170854194751
1591605                   358.71225532561687
1591605.2                 358.7073887295287
1591605.4                 358.7024852159273
1591605.6                 358.6975443632012
1591605.8                 358.6925657433132
1591606                   358.687548921642
1591606.2                 358.682493456879
1591606.4                 358.67739890089337
1591606.6                 358.67226479859306
1591606.8                 358.6670906878143
1591607                   358.6618760991464
1591607.2                 358.656620555814
1591607.4                 358.65132357352604
1591607.6                 358.6459846603207
1591607.8                 358.6406033164381
1591608                   358.6351790341272
1591608.2                 358.6297112975112
1591608.4                 358.62419958241765
1591608.6                 358.61864335620476
1591608.8                 358.6130420776158
1591609                   358.6073951965644
1591609.2                 358.60170215398125
1591609.4                 358.5959623816222
1591609.6                 358.5901753018733
1591609.8                 358.584340327584
1591610                   358.5784568618283
1591610.2                 358.5725242977281
1591610.4                 358.5665420182383
1591610.6                 358.5605093959255
1591610.8                 358.5544257927777
1591611                   358.54829055993645
1591611.2                 358.54210303749517
1591611.4                 358.5358625542555
1591611.6                 358.5295684274773
1591611.8                 358.52321996265937
1591612                   358.51681645324015
1591612.2                 358.51035718036525
1591612.4                 358.50384141261117
1591612.6                 358.4972684057018
1591612.8                 358.4906374022561
1591613                   358.4839476314512
1591613.2                 358.4771983087551
1591613.4                 358.4703886356119
1591613.6                 358.46351779911953
1591613.8                 358.4565849717387
1591614                   358.4495893109128
1591614.2                 358.44252995875854
1591614.4                 358.43540604170835
1591614.6                 358.42821667014107
1591614.8                 358.4209609380462
1591615                   358.4136379225933
1591615.2                 358.40624668377427
1591615.4                 358.39878626399326
1591615.6                 358.39125568764496
1591615.8                 358.38365396072476
1591616                   358.375980070339
1591616.2                 358.3682329842907
1591616.4                 358.3604116506087
1591616.6                 358.3525149970621
1591616.8                 358.3445419307085
1591617                   358.33649133733445
1591617.2                 358.3283620809737
1591617.4                 358.3201530033648
1591617.6                 358.31186292339123
1591617.8                 358.3034906365547
1591618                   358.29503491433434
1591618.2                 358.28649450362474
1591618.4                 358.27786812610844
1591618.6                 358.26915447760814
1591618.8                 358.26035222747146
1591619                   358.251460017833
1591619.2                 358.2424764629573
1591619.4                 358.23340014851027
1591619.6                 358.2242296308067
1591619.8                 358.21496343608834
1591620                   358.2056000596718
1591620.2                 358.19613796517734
1591620.4                 358.1865755836789
1591620.6                 358.17691131282675
1591620.8                 358.16714351599876
1591621                   358.15727052131024
1591621.2                 358.1472906207057
1591621.4                 358.1372020689645
1591621.6                 358.12700308267233
1591621.8                 358.11669183921987
1591622                   358.1062664756469
1591622.2                 358.09572508756906
1591622.4                 358.08506572800843
1591622.6                 358.07428640618355
1591622.8                 358.06338508632217
1591623                   358.05235968630615
1591623.2                 358.0412080763977
1591623.4                 358.02992807785745
1591623.6                 358.01851746151476
1591623.8                 358.0069739463537
1591624                   357.9952951979165
1591624.2                 357.98347882678473
1591624.4                 357.97152238693917
1591624.6                 357.9594233740601
1591624.8                 357.9471792238386
1591625                   357.9347873100825
1591625.2                 357.9222449428985
1591625.4                 357.9095493667345
1591625.6                 357.89669775834994
1591625.8                 357.88368722478674
1591626                   357.8705148011119
1591626.2                 357.85717744822875
1591626.4                 357.8436720505291
1591626.6                 357.82999541345526
1591626.8                 357.8161442610489
1591627                   357.80211523324516
1591627.2                 357.78790488322375
1591627.4                 357.77350967457494
1591627.6                 357.758925978355
1591627.8                 357.7441500701095
1591628                   357.72917812660756
1591628.2                 357.714006222618
1591628.4                 357.69863032746866
1591628.6                 357.68304630146577
1591628.8                 357.6672498922587
1591629                   357.6512367308714
1591629.2                 357.63500232775476
1591629.4                 357.61854206858146
1591629.6                 357.6018512098635
1591629.8                 357.5849248744839
1591630                   357.5677580468386
1591630.2                 357.5503455679718
1591630.4                 357.53268213039973
1591630.6                 357.5147622727086
1591630.8                 357.49658037402287
1591631                   357.4781306480165
1591631.2                 357.45940713687145
1591631.4                 357.4404037048601
1591631.6                 357.42111403163545
1591631.8                 357.40153160533197
1591632                   357.381649715121
1591632.2                 357.3614614436533
1591632.4                 357.34095965903526
1591632.6                 357.3201370064276
1591632.8                 357.298985899371
1591633                   357.27749851045155
1591633.2                 357.2556667617678
1591633.4                 357.2334823148121
1591633.6                 357.2109365598573
1591633.8                 357.1880206049564